
FAST Summary File

Predictions were generated on 03-Nov-2024 at 18:46:32 using OpenFAST, compiled as a 64-bit application using single precision at commit Unversioned from 4b7d7069a9baceacf9edf67ddd298ca0de77e860
  compiled with
    NWTC Subroutine Library
    ElastoDyn
    BeamDyn (unknown version, unknown date) [not called]
    InflowWind (unknown version, unknown date) [not called]
    AeroDyn14 (unknown version, unknown date) [not called]
    AeroDyn (unknown version, unknown date) [not called]
    ServoDyn (unknown version, unknown date) [not called]
    HydroDyn (unknown version, unknown date) [not called]
    SubDyn
    ExtPtfm_MCKF (unknown version, unknown date) [not called]
    MAP (unknown version, unknown date) [not called]
    FEAMooring (unknown version, unknown date) [not called]
    MoorDyn (unknown version, unknown date) [not called]
    OrcaFlexInterface (unknown version, unknown date) [not called]
    IceFloe (unknown version, unknown date) [not called]
    IceDyn (unknown version, unknown date) [not called]


Modeling a land-based turbine
Description from the FAST input file: 
  FAST Certification Test #19: NREL 5.0 MW Baseline Wind Turbine with OC3 Monopile RF Configuration, for use in offshore analysis

Interpolation order for input/output time histories: 2 (quadratic)
Number of correction iterations:  0
Number of rows in Jacobian matrix used for coupling ElastoDyn, SubDyn, HydroDyn, OrcaFlex, ExtPtfm_MCKF, and/or BeamDyn:     12


   Requested Time Steps  
  -------------------------------------------------
  Component          Time Step (s)    Subcycles (-)
  -----------------  ---------------  -------------
  FAST (glue code)    5.000E-03
  ElastoDyn           5.000E-03              1
  SubDyn              5.000E-03              1
  FAST output files   5.000E-02             10^-1


   Requested Channels in FAST Output File(s)  
  --------------------------------------------
  Number  Name                  Units                 Generated by
  ------  --------------------  --------------------  ------------
       1  Time                  (s)                   OpenFAST
       2  OoPDefl1              (m)                   ElastoDyn
       3  IPDefl1               (m)                   ElastoDyn
       4  OoPDefl2              (m)                   ElastoDyn
       5  IPDefl2               (m)                   ElastoDyn
       6  OoPDefl3              (m)                   ElastoDyn
       7  IPDefl3               (m)                   ElastoDyn
       8  TwrTpTDxi             (m)                   ElastoDyn
       9  TwrTpTDyi             (m)                   ElastoDyn
      10  YawBrTAxp             (m/s^2)               ElastoDyn
      11  YawBrTAyp             (m/s^2)               ElastoDyn
      12  PtfmSurge             (m)                   ElastoDyn
      13  PtfmSway              (m)                   ElastoDyn
      14  HSSBrTq               (kN-m)                ElastoDyn
      15  HSShftV               (rpm)                 ElastoDyn
      16  HSShftA               (deg/s^2)             ElastoDyn
      17  RootFxc1              (kN)                  ElastoDyn
      18  RootFyc1              (kN)                  ElastoDyn
      19  RootFzc1              (kN)                  ElastoDyn
      20  RootMxc1              (kN-m)                ElastoDyn
      21  RootMyc1              (kN-m)                ElastoDyn
      22  RootMzc1              (kN-m)                ElastoDyn
      23  -ReactFXss            (N)                   SubDyn
      24  -ReactFYss            (N)                   SubDyn
      25  -ReactMXss            (Nm)                  SubDyn
      26  -ReactMYss            (Nm)                  SubDyn
      27  -ReactMZss            (Nm)                  SubDyn
      28  -ReactFZss            (N)                   SubDyn
